<?xml version="1.0"?>
<VTKFile type="PolyData" version="0.1" byte_order="LittleEndian" compressor="vtkZLibDataCompressor">
	<PolyData>
		<Piece NumberOfPoints="1459" NumberOfVerts="0" NumberOfLines="0" NumberOfStrips="0" NumberOfPolys="1796">
		<PointData Normals="Normals">
		<DataArray type="Float32" Name="Normals" NumberOfComponents="3" format="ascii">
			 0.898479 -0.075982  0.432391
			 0.991294 -0.123777 -0.044896
			 0.920969 -0.387407  0.041624
			 0.300838  0.951833  0.059252
			-0.784719  0.615956 -0.069389
			-0.780673  0.607696 -0.145792
			-0.821613  0.569745 -0.018505
			-0.860794  0.361156  0.358608
			 0.652135 -0.236182  0.720374
			 0.993116  0.093783 -0.070178
			 0.977773  0.206503 -0.036298
			 0.984608  0.174598 -0.007870
			 0.998699 -0.050977 -0.000791
			 0.962858 -0.270005 -0.001295
			 0.860191 -0.509963 -0.002967
			 0.540404 -0.841402 -0.002361
			 0.227694 -0.973725 -0.003966
			-0.225211 -0.973330  0.043688
			-0.742063 -0.668593  0.048224
			-0.969421 -0.245177  0.010588
			-0.946169  0.323600  0.006879
			-0.810399  0.585533  0.020112
			 0.843922 -0.186843  0.502877
			 0.904195 -0.177432  0.388521
			 0.866423 -0.386424  0.316209
			 0.845510 -0.434399 -0.310501
			 0.906730 -0.318848  0.276003
			 0.676268  0.734573  0.055359
			-0.544374  0.784798  0.296224
			 0.971237 -0.098009 -0.217011
			 0.790480 -0.216925 -0.572787
			 0.759033 -0.280014 -0.587760
			 0.652111  0.459000 -0.603382
			-0.273814  0.949768 -0.151550
			 0.995027 -0.094666 -0.030972
			 0.979278 -0.171440 -0.107814
			 0.896620 -0.131531 -0.422814
			 0.136440  0.852673 -0.504314
			 0.950400 -0.168121  0.261676
			 0.934238 -0.227225  0.274898
			 0.948347 -0.224778  0.223858
			 0.879883  0.394248  0.265281
			 0.968549 -0.220445 -0.115398
			 0.966295 -0.209782 -0.149217
			 0.958505 -0.265116 -0.104794
			 0.984792  0.080855 -0.153775
			 0.135188  0.990237  0.033985
			 0.907031 -0.138752 -0.397545
			 0.846562 -0.088589 -0.524867
			 0.757817 -0.230680 -0.610329
			 0.786956  0.046754 -0.615236
			 0.505114  0.660451 -0.555575
			 0.913419 -0.124366 -0.387556
			 0.921952 -0.088761 -0.376996
			 0.985335 -0.167573 -0.032169
			 0.925359  0.358468 -0.123336
			 0.980073 -0.159153 -0.118862
			 0.969851 -0.151436  0.190937
			 0.945921 -0.197259  0.257530
			 0.986248  0.068066  0.150604
			 0.211449  0.713236  0.668269
			 0.896362 -0.374945 -0.236538
			 0.959311 -0.102955 -0.262911
			 0.907924 -0.291378 -0.301286
			 0.946296  0.010016 -0.323147
			 0.881114  0.427307 -0.202600
			 0.461158  0.877001 -0.134919
			 0.760194 -0.269241 -0.591282
			 0.682338  0.149466 -0.715594
			 0.377961 -0.102353 -0.920146
			 0.581443  0.050854 -0.811996
			 0.588252  0.377600 -0.715107
			 0.003118  0.919377 -0.393366
			 0.699113  0.064953 -0.712055
			 0.224229  0.936502  0.269601
			 0.641293 -0.045876 -0.765923
			 0.792114 -0.023643 -0.609915
			 0.043636  0.779203 -0.625251
			 0.868375 -0.225488 -0.441678
			 0.959194 -0.059528 -0.276411
			 0.946918 -0.320022 -0.030518
			 0.998792  0.044668 -0.020457
			 0.707208  0.646522  0.286122
			 0.695794 -0.219801 -0.683782
			 0.720406 -0.171664 -0.671972
			 0.749870 -0.235193 -0.618368
			 0.770208  0.179681 -0.611959
			 0.526883  0.751197 -0.397615
			 0.048687  0.793755  0.606285
			 0.349077  0.086729 -0.933072
			 0.124977  0.102244 -0.986877
			 0.040505 -0.003425 -0.999174
			 0.056945  0.354200 -0.933434
			-0.248085  0.968297 -0.029232
			 0.674393  0.126761 -0.727410
			 0.568657  0.145083 -0.809679
			 0.504179  0.399735 -0.765516
			 0.046634  0.983856 -0.172779
			 0.583293 -0.136107 -0.800777
			 0.721812  0.013902 -0.691950
			 0.900843 -0.056795 -0.430414
			 0.880993  0.422412 -0.213118
			 0.309059  0.875121  0.372352
			 0.393382  0.773058  0.497627
			 0.330266  0.847630  0.415268
			 0.491054  0.140900 -0.859659
			 0.430461  0.089308 -0.898180
			 0.444114 -0.005592 -0.895953
			 0.311544  0.713228 -0.627890
			-0.023376  0.970410  0.240330
			-0.033694  0.962298  0.269903
			 0.471685  0.338374 -0.814258
			 0.105366  0.400909 -0.910038
			 0.322509  0.069494 -0.944012
			 0.305429  0.802469 -0.512598
			-0.371600  0.901360  0.222404
			-0.214531  0.949505  0.228948
			 0.525202  0.337695 -0.781105
			 0.699140  0.501495 -0.509614
			 0.815168  0.128362 -0.564822
			 0.279815  0.947150 -0.156878
			 0.017379  0.998636 -0.049230
			 0.724836  0.181258 -0.664649
			 0.914173 -0.010957 -0.405177
			 0.912664 -0.053242 -0.405228
			 0.806201  0.544377 -0.231719
			 0.080223  0.992444  0.092840
			 0.164654  0.954582 -0.248320
			 0.464756  0.087938 -0.881061
			 0.500533 -0.018949 -0.865510
			 0.441352  0.001949 -0.897332
			 0.439385  0.638575 -0.631793
			 0.178963  0.981923  0.061647
			 0.319538  0.296624 -0.899950
			 0.276029  0.052268 -0.959727
			 0.263736 -0.032735 -0.964039
			 0.372378  0.462896 -0.804402
			 0.291277  0.952108 -0.092996
			 0.114535  0.989206 -0.091394
			 0.355886  0.464778 -0.810756
			 0.179510  0.180066 -0.967136
			 0.077692  0.068547 -0.994618
			 0.180052  0.479973 -0.858607
			 0.263939  0.957844 -0.113448
			 0.180432  0.975485  0.125992
			 0.349898  0.607019 -0.713512
			 0.032232  0.312694 -0.949307
			-0.285845  0.218767 -0.932970
			-0.073298  0.432072 -0.898856
			 0.027082  0.868656 -0.494675
			 0.310738  0.685170 -0.658775
			-0.062511  0.441443 -0.895109
			-0.474663  0.269463 -0.837905
			-0.156600  0.808994 -0.566573
			 0.263029  0.964685 -0.014094
			 0.458913  0.485072 -0.744382
			 0.270605  0.238619 -0.932649
			 0.310460  0.784654 -0.536594
			 0.464292  0.653405 -0.597909
			 0.724922  0.247273 -0.642918
			 0.822249  0.096253 -0.560929
			 0.640958  0.586772 -0.494845
			 0.342143  0.939340  0.024044
			-0.095880  0.994830 -0.033470
			 0.500440  0.799010 -0.333381
			 0.408195  0.512058 -0.755760
			 0.262455  0.289552 -0.920477
			 0.312840  0.732236 -0.604947
			 0.143113  0.972643  0.182987
			 0.145146  0.886962  0.438442
			 0.361038  0.927543 -0.096520
			 0.058154  0.809187 -0.584666
			-0.029042  0.388859 -0.920839
			 0.255035  0.785208 -0.564274
			 0.355031  0.897172  0.262746
			 0.584157  0.807725  0.079631
			 0.260148  0.793373 -0.550348
			-0.168985  0.456067 -0.873755
			-0.068965  0.890231 -0.450259
			 0.084427  0.951447  0.296009
			 0.353762  0.903711  0.241161
			 0.568360  0.815601  0.108457
			 0.669417  0.706557 -0.229473
			 0.412420  0.375321 -0.830087
			 0.561051  0.827563 -0.018991
			 0.167640  0.906063  0.388520
			 0.403060  0.832241  0.380681
			 0.717279  0.651909 -0.246022
			 0.786594  0.226808 -0.574307
			 0.745356  0.594797 -0.301100
			 0.419580  0.743814  0.520283
			 0.198013  0.493716  0.846780
			 0.092950  0.715016  0.692901
			 0.290593  0.615233  0.732833
			 0.433358  0.845984  0.310664
			 0.480362  0.462640 -0.745128
			 0.529221  0.719323 -0.450000
			 0.220919  0.845499  0.486135
			-0.013117  0.947801  0.318593
			 0.496133  0.531902  0.686245
			 0.349359  0.855410  0.382391
			 0.199790  0.684675 -0.700931
			 0.316442  0.816805 -0.482383
			 0.272346  0.887573  0.371541
			 0.081689  0.587793  0.804877
			 0.325048  0.765791  0.554895
			 0.493748  0.356235  0.793290
			 0.315220  0.788479  0.528145
			-0.385570  0.807530 -0.446354
			-0.248151  0.967652 -0.045497
			 0.135585  0.684417  0.716373
			 0.199690  0.605464  0.770414
			-0.309333  0.363934  0.878558
			-0.410816  0.687160  0.599200
			-0.841511  0.524877  0.127919
			 0.015205  0.859382  0.511108
			-0.670671 -0.122868  0.731508
			-0.749752 -0.349397  0.561956
			-0.612758  0.228022  0.756659
			-0.136145  0.857191  0.496677
			-0.482356 -0.212168  0.849893
			-0.500983 -0.145749  0.853097
			-0.102917  0.791895  0.601922
			-0.219164 -0.066435  0.973424
			-0.020836 -0.122008  0.992310
			 0.068439 -0.381462  0.921847
			 0.257481  0.513078  0.818813
			 0.131147  0.986760  0.095417
			-0.165888  0.155841  0.973753
			-0.251945 -0.110678  0.961392
			 0.058872  0.731877  0.678889
			-0.344317  0.044975  0.937776
			-0.484242 -0.095789  0.869675
			-0.516750  0.116731  0.848141
			 0.199631  0.945771  0.256251
			 0.402768  0.902375 -0.153288
			-0.307370 -0.033128  0.951013
			-0.301627 -0.363105  0.881576
			-0.193905 -0.161850  0.967577
			 0.118510  0.806642  0.579037
			 0.387245  0.920831 -0.045958
			-0.060304  0.060519  0.996344
			 0.016952 -0.314088  0.949242
			 0.252093 -0.349919  0.902223
			 0.300433  0.421881  0.855428
			 0.284502  0.958636 -0.008688
			 0.075126  0.230937  0.970064
			 0.096085 -0.008215  0.995339
			 0.146355  0.645405  0.749688
			-0.184780  0.329341  0.925954
			-0.464453  0.148788  0.873010
			-0.501435  0.081288  0.861368
			-0.259065  0.648009  0.716219
			-0.037052  0.981831 -0.186106
			-0.301063  0.292153  0.907749
			-0.406993  0.098075  0.908151
			-0.307521  0.137293  0.941585
			 0.077985  0.963232  0.257103
			-0.157645  0.283157  0.946029
			-0.216790  0.089400  0.972116
			-0.044288 -0.011238  0.998956
			 0.166057  0.784965  0.596871
			 0.286183  0.874852 -0.390810
			-0.277234  0.322860  0.904932
			-0.366452  0.257753  0.894022
			-0.312438  0.393598  0.864559
			-0.461486  0.241948  0.853517
			-0.689026  0.315557  0.652432
			-0.709962  0.427135  0.559919
			-0.517307  0.821141  0.241082
			-0.376237  0.245525  0.893400
			-0.193738 -0.052083  0.979670
			-0.338743  0.230114  0.912305
			-0.149075  0.794396  0.588822
			-0.263057  0.425276  0.865992
			-0.255958  0.142946  0.956061
			 0.012362  0.119156  0.992799
			 0.218905  0.808161  0.546768
			-0.106453  0.323625  0.940178
			-0.413658  0.226256  0.881870
			-0.207550  0.866625  0.453744
			-0.230727  0.479950  0.846412
			-0.516684  0.337352  0.786913
			-0.812530  0.227603  0.536648
			-0.442626  0.868482  0.223204
			-0.159251  0.981326  0.107883
			-0.304692  0.581461  0.754365
			-0.313882  0.332074  0.889497
			-0.320759 -0.009832  0.947110
			-0.185534  0.370971  0.909922
			 0.221498  0.940812  0.256540
			 0.099349  0.930326  0.353020
			-0.389097  0.594245  0.703900
			-0.302411  0.243201  0.921629
			 0.283692  0.888212  0.361384
			-0.643592  0.548720  0.533569
			-0.785812  0.424800  0.449492
			-0.746722  0.470861  0.469783
			-0.576085  0.813500  0.079644
			-0.615573  0.532621  0.580849
			-0.672257  0.367538  0.642640
			-0.631433  0.395157  0.667191
			-0.535235  0.517798  0.667389
			-0.515735  0.604711  0.606912
			-0.696938  0.475779  0.536574
			-0.729806  0.498835  0.467490
			-0.323453  0.735325  0.595546
			-0.689384  0.598958  0.407430
			-0.859804  0.469549  0.200652
			-0.811072  0.554922  0.184998
			-0.630223  0.774151  0.059239
			-0.720503  0.580160  0.379856
			-0.771307  0.439334  0.460512
			-0.686718  0.436914  0.580969
			-0.710592  0.519141  0.474923
			-0.671305  0.691403  0.267042
			-0.736949  0.631663  0.240641
			-0.753278  0.587441  0.295780
			-0.730513  0.680233  0.060286
			-0.748450  0.632896 -0.198153
			-0.704480  0.699143 -0.122097
			-0.533399  0.844933 -0.039681
			-0.822041  0.534555  0.196214
			-0.715519  0.685663  0.133789
			-0.721201  0.634454  0.278098
			-0.740263  0.446827  0.502350
			-0.572592  0.706211  0.416417
			-0.699868  0.635995  0.325109
			-0.869386  0.373061  0.324027
			 0.530013  0.484098  0.696230
			-0.145595  0.475538  0.867563
			 0.466468  0.385729  0.796003
			-0.169048  0.415382  0.893802
			 0.278334  0.386327  0.879364
			-0.231647  0.438467  0.868381
			 0.130223  0.419988  0.898138
			-0.281754  0.437399  0.853989
			 0.068697  0.413079  0.908101
			-0.329166  0.447932  0.831268
			-0.155391  0.418095  0.895014
			-0.393927  0.519597  0.758183
			-0.338738  0.343880  0.875787
			-0.431288  0.517460  0.739071
			-0.444386  0.302175  0.843333
			-0.522875  0.457736  0.719083
			-0.364930  0.222856  0.903970
			-0.489235  0.348315  0.799578
			-0.548134  0.289562  0.784667
			-0.304772  0.277823  0.911004
			-0.472823  0.451754  0.756543
			-0.706962  0.495549 -0.504614
			-0.664215  0.735007 -0.136321
			-0.137761  0.518941  0.843636
			-0.378971  0.173987  0.908906
			 0.114657  0.926855 -0.357483
			 0.535877  0.786240 -0.307674
			 0.660628  0.745683 -0.086764
			 0.652355  0.234618 -0.720685
			 0.967946  0.237121  0.082793
			 0.863158 -0.121737 -0.490040
			 0.674930 -0.152043 -0.722047
			 0.963553  0.254273 -0.083127
			 0.928267  0.310316  0.204998
			 0.946849  0.134737  0.292100
			 0.637828  0.513055  0.574413
			 0.649126 -0.116754  0.751667
			 0.565155 -0.098490  0.819085
			 0.870283  0.374523  0.319907
			 0.651501 -0.030472  0.758036
			 0.347245  0.204402  0.915227
			 0.081759  0.986255  0.143588
			-0.335506  0.547558  0.766561
			 0.200486  0.967308 -0.155311
			 0.400565  0.644250 -0.651528
			 0.345716 -0.430266 -0.833877
			 0.517917 -0.090369 -0.850644
			 0.325161  0.039920 -0.944816
			 0.241297 -0.081470 -0.967026
			 0.318879 -0.076246 -0.944724
			-0.306489  0.350597 -0.884956
			 0.382365 -0.122485 -0.915857
			 0.480009 -0.138302 -0.866293
			 0.460885 -0.146667 -0.875256
			-0.651160  0.565345 -0.506336
			 0.299946  0.943497 -0.140877
			 0.752021  0.058648 -0.656524
			 0.906565 -0.094955 -0.411246
			 0.903360 -0.208700 -0.374680
			 0.601707  0.685826  0.409379
			 0.447421  0.163597  0.879233
			 0.454134  0.075607  0.887720
			-0.257995  0.240685  0.935687
			-0.245357  0.583544  0.774129
			-0.234933  0.196219  0.952000
			 0.672160 -0.537215  0.509511
			 0.704217 -0.646479  0.293502
			 0.850789 -0.522438 -0.056711
			 0.744032 -0.609535  0.273649
			 0.779772 -0.604997 -0.161041
			 0.854683 -0.447298 -0.263519
			 0.874711 -0.475155 -0.095440
			 0.754535 -0.565810 -0.332471
			 0.778238 -0.627044 -0.034070
			 0.736810 -0.613915 -0.283230
			 0.523002 -0.338994 -0.782018
			 0.650229 -0.349729 -0.674457
			 0.556532 -0.172680 -0.812683
			 0.567858 -0.011577 -0.823045
			 0.590443  0.004157 -0.807068
			 0.457984  0.419506 -0.783751
			 0.496091  0.657500 -0.567087
			 0.619189  0.756332 -0.211108
			 0.602345  0.776053  0.186875
			 0.596018  0.593203  0.541177
			 0.532737  0.366321  0.762890
			 0.288265  0.259616  0.921685
			 0.006916  0.179747  0.983689
			-0.199273  0.179732  0.963321
			 0.991910 -0.028280 -0.123755
			 0.959682 -0.279200  0.032531
			 0.875543 -0.468332  0.118701
			 0.778385 -0.562987  0.277781
			 0.923622 -0.375246 -0.078186
			 0.934385 -0.349699 -0.068085
			 0.891852 -0.352103 -0.283944
			 0.934668 -0.220464 -0.278911
			 0.926933 -0.198402 -0.318484
			 0.862680 -0.258502 -0.434696
			 0.856215 -0.352109 -0.378042
			 0.673614 -0.196666 -0.712437
			 0.702567  0.032412 -0.710879
			 0.689919  0.054622 -0.721823
			 0.781783  0.250629 -0.570965
			 0.744298  0.338852 -0.575499
			 0.653054  0.493109 -0.574773
			 0.705994  0.528744 -0.471170
			 0.761542  0.564582 -0.318277
			 0.867447  0.475262  0.147182
			 0.634007  0.372508  0.677696
			 0.557360  0.117847  0.821865
			 0.664983 -0.057353  0.744653
			 0.652863 -0.012252  0.757377
			-0.466552  0.318789 -0.825047
			-0.606902 -0.275889 -0.745355
			-0.587271  0.720184 -0.369387
			-0.750733  0.645983 -0.138223
			-0.848666  0.304631  0.432396
			-0.878602  0.137726 -0.457264
			-0.962536  0.092648 -0.254836
			-0.977558  0.009621  0.210447
			-0.921853 -0.346449  0.173668
			-0.411202 -0.283027  0.866492
			-0.362134 -0.412000  0.836131
			 0.983668  0.165082 -0.071726
			 0.978767  0.070907 -0.192322
			 0.916377  0.039789 -0.398335
			 0.869225 -0.008267 -0.494348
			 0.814077  0.002312 -0.580752
			 0.618097 -0.386081 -0.684761
			 0.650655 -0.276633 -0.707193
			 0.729085 -0.172093 -0.662434
			 0.675913 -0.085900 -0.731958
			 0.766756 -0.161245 -0.621357
			 0.769777 -0.104465 -0.629707
			 0.614046  0.111794 -0.781313
			 0.592036  0.152775 -0.791298
			 0.543004  0.178832 -0.820467
			 0.549293  0.222759 -0.805392
			 0.542934  0.219767 -0.810509
			 0.673872  0.191949 -0.713479
			 0.812435  0.199073 -0.548015
			 0.912826  0.194760 -0.358912
			 0.988715  0.047781 -0.141987
			 0.992119 -0.088604 -0.088591
			 0.976340 -0.152252 -0.153557
			 0.938559 -0.205589 -0.277201
			 0.868067 -0.229907 -0.440002
			 0.983949  0.103936 -0.145061
			 0.961343  0.051514 -0.270493
			 0.885596  0.060027 -0.460560
			 0.872485  0.091295 -0.480036
			 0.701130  0.421923 -0.574803
			 0.595365  0.240376 -0.766655
			 0.818615 -0.038821 -0.573029
			 0.796580 -0.156898 -0.583819
			 0.707600 -0.037840 -0.705599
			 0.624336 -0.143531 -0.767856
			 0.583432 -0.289998 -0.758623
			 0.562994 -0.161328 -0.810562
			 0.432024 -0.045910 -0.900693
			 0.331790  0.010249 -0.943298
			 0.317275  0.052883 -0.946858
			 0.344383  0.045964 -0.937703
			 0.350729  0.029121 -0.936024
			 0.411519  0.008639 -0.911360
			 0.503057 -0.068010 -0.861573
			 0.551994 -0.092462 -0.828706
			 0.571253 -0.066320 -0.818090
			 0.570697 -0.097043 -0.815406
			 0.559269 -0.163322 -0.812739
			 0.500511 -0.151458 -0.852379
			 0.977414  0.051808 -0.204885
			 0.944804  0.071554 -0.319727
			 0.877764  0.084814 -0.471527
			 0.866694  0.023271 -0.498298
			 0.789171  0.091558 -0.607310
			 0.705435  0.307067 -0.638805
			 0.862839  0.067895 -0.500899
			 0.795239 -0.174328 -0.580694
			 0.684898 -0.165630 -0.709565
			 0.600615 -0.104739 -0.792648
			 0.541778 -0.214720 -0.812633
			 0.420822 -0.348999 -0.837322
			 0.296528 -0.203249 -0.933146
			 0.275874 -0.065774 -0.958941
			 0.295803 -0.051025 -0.953885
			 0.295238 -0.055898 -0.953787
			 0.278059 -0.048062 -0.959361
			 0.337968 -0.090786 -0.936769
			 0.386755 -0.150689 -0.909788
			 0.383209 -0.161202 -0.909486
			 0.379122 -0.080060 -0.921877
			 0.361403 -0.023317 -0.932118
			 0.355039 -0.074079 -0.931912
			 0.299161 -0.033251 -0.953623
			 0.980626 -0.139771 -0.137250
			 0.946966 -0.098921 -0.305730
			 0.863109 -0.050791 -0.502457
			 0.803318 -0.057303 -0.592787
			 0.772789 -0.147941 -0.617180
			 0.715518 -0.162878 -0.679341
			 0.696802 -0.226432 -0.680584
			 0.632631 -0.329788 -0.700726
			 0.512400 -0.394538 -0.762749
			 0.424738 -0.369749 -0.826368
			 0.340280 -0.418438 -0.842092
			 0.242675 -0.413960 -0.877352
			 0.227184 -0.289428 -0.929849
			 0.267524 -0.225822 -0.936715
			 0.299818 -0.103801 -0.948333
			 0.305751  0.000954 -0.952111
			 0.278741 -0.028724 -0.959937
			 0.212342 -0.153581 -0.965051
			 0.146395 -0.183570 -0.972045
			 0.137709 -0.168445 -0.976044
			 0.156618 -0.126905 -0.979472
			 0.199207 -0.015571 -0.979834
			 0.241093 -0.007377 -0.970474
			 0.303391  0.054741 -0.951292
			 0.813250 -0.581812 -0.010893
			 0.764726 -0.603212 -0.226563
			 0.729980 -0.428670 -0.532327
			 0.672202 -0.309105 -0.672755
			 0.630807 -0.329412 -0.702546
			 0.586306 -0.363123 -0.724146
			 0.497410 -0.498455 -0.710019
			 0.336632 -0.620323 -0.708434
			 0.195319 -0.645105 -0.738708
			 0.128231 -0.639810 -0.757760
			 0.131700 -0.587310 -0.798575
			 0.198074 -0.370609 -0.907422
			 0.248320 -0.289049 -0.924547
			 0.246287 -0.377264 -0.892757
			 0.207466 -0.408178 -0.889015
			 0.069133 -0.471373 -0.879220
			 0.006371 -0.269396 -0.963008
			 0.008567 -0.101023 -0.994847
			-0.052174 -0.126939 -0.990537
			-0.066542 -0.139413 -0.987996
			-0.040592 -0.131914 -0.990430
			 0.047082 -0.067915 -0.996579
			 0.182235 -0.026602 -0.982895
			 0.440877  0.043649 -0.896506
			 0.446190 -0.894934 -0.002772
			 0.359603 -0.922670 -0.139161
			 0.409571 -0.799907 -0.438634
			 0.417251 -0.665419 -0.618966
			 0.336213 -0.665276 -0.666610
			 0.219462 -0.708958 -0.670235
			 0.094328 -0.780694 -0.617754
			-0.017233 -0.792310 -0.609876
			-0.095632 -0.773500 -0.626540
			-0.110740 -0.793615 -0.598257
			-0.050915 -0.709992 -0.702367
			 0.038879 -0.581978 -0.812274
			 0.103204 -0.601348 -0.792293
			 0.079280 -0.628205 -0.773998
			-0.120025 -0.832575 -0.540752
			-0.455472 -0.836679 -0.304159
			-0.525706 -0.447447 -0.723481
			-0.276481 -0.048071 -0.959816
			-0.239293 -0.024347 -0.970642
			-0.248785 -0.090717 -0.964301
			-0.261813 -0.148475 -0.953629
			-0.173434 -0.151870 -0.973065
			-0.079107 -0.161086 -0.983765
			 0.108760 -0.212570 -0.971074
			 0.441146 -0.894403 -0.073710
			 0.339571 -0.924890 -0.171085
			 0.094649 -0.964769 -0.245485
			 0.000152 -0.942327 -0.334692
			-0.143783 -0.922620 -0.357910
			-0.213347 -0.876037 -0.432483
			-0.270472 -0.896231 -0.351588
			-0.398541 -0.895185 -0.199523
			-0.421191 -0.863851 -0.276331
			-0.360220 -0.881412 -0.305542
			-0.332015 -0.875167 -0.351922
			-0.329216 -0.879026 -0.344862
			-0.291532 -0.919631 -0.263227
			-0.327894 -0.917794 -0.223921
			-0.503860 -0.863785 -0.000554
			-0.751239 -0.657601  0.056578
			-0.864369 -0.348057 -0.362937
			-0.767900 -0.102642 -0.632293
			-0.760463  0.003989 -0.649369
			-0.688313 -0.037358 -0.724452
			-0.602112 -0.163830 -0.781423
			-0.550486 -0.233956 -0.801392
			-0.581172 -0.260962 -0.770804
			-0.618797 -0.308286 -0.722531
			-0.054255 -0.998520  0.003765
			-0.158003 -0.986891  0.032880
			-0.374051 -0.917053  0.138202
			-0.495818 -0.848825  0.183468
			-0.615196 -0.770047  0.168998
			-0.602746 -0.796772  0.043029
			-0.545629 -0.828258  0.127581
			-0.597446 -0.752683  0.276634
			-0.614899 -0.752533  0.235783
			-0.581737 -0.789311  0.196392
			-0.584819 -0.785058  0.204133
			-0.606943 -0.755103  0.247871
			-0.573135 -0.740336  0.351311
			-0.546411 -0.703888  0.453847
			-0.599077 -0.604844  0.524663
			-0.738192 -0.439555  0.511727
			-0.869917 -0.303474  0.388777
			-0.924628 -0.163198  0.344135
			-0.933503  0.005724  0.358523
			-0.971779  0.043062  0.231928
			-0.997491 -0.057155  0.041767
			-0.977517 -0.188578 -0.094338
			-0.968671 -0.244467 -0.043737
			-0.946306 -0.310218  0.090938
			-0.793766 -0.598678  0.107334
			-0.799503 -0.511881  0.314281
			-0.747682 -0.419464  0.514802
			-0.726749 -0.333787  0.600351
			-0.726902 -0.310746  0.612413
			-0.697776 -0.384098  0.604630
			-0.663126 -0.474472  0.578913
			-0.665754 -0.497925  0.555737
			-0.655712 -0.496101  0.569144
			-0.632046 -0.458920  0.624428
			-0.611419 -0.390745  0.688103
			-0.623607 -0.356049  0.695948
			-0.622382 -0.348973  0.700613
			-0.565806 -0.345607  0.748611
			-0.477283 -0.299865  0.826004
			-0.471364 -0.194451  0.860235
			-0.486844 -0.123037  0.864780
			-0.356223 -0.084446  0.930577
			-0.273987  0.055577  0.960126
			-0.374167  0.194841  0.906662
			-0.490345  0.206479  0.846716
			-0.613967  0.077749  0.785493
			-0.548456 -0.106620  0.829354
			-0.398657 -0.296490  0.867852
			-0.976310 -0.178911  0.121697
			-0.938120 -0.110983  0.328045
			-0.859012 -0.042800  0.510162
			-0.723000  0.042794  0.689521
			-0.583105  0.076145  0.808821
			-0.544662 -0.090138  0.833797
			-0.569834 -0.300047  0.765024
			-0.613547 -0.405610  0.677525
			-0.629031 -0.388055  0.673598
			-0.709435 -0.274049  0.649306
			-0.723859 -0.267499  0.635981
			-0.607961 -0.324171  0.724773
			-0.619834 -0.284567  0.731319
			-0.656383 -0.221297  0.721241
			-0.573485 -0.172898  0.800763
			-0.475917 -0.095519  0.874288
			-0.421685 -0.025938  0.906371
			-0.505135  0.069085  0.860271
			-0.481248  0.143433  0.864770
			-0.268083  0.157400  0.950451
			-0.187939  0.227573  0.955453
			-0.117659  0.223233  0.967638
			 0.049283  0.135157  0.989598
			 0.324358 -0.051335  0.944540
			-0.916251  0.331627  0.224739
			-0.823842  0.309544  0.474834
			-0.720186  0.289277  0.630596
			-0.652707  0.369773  0.661243
			-0.562348  0.384514  0.732062
			-0.401335  0.151050  0.903390
			-0.421078 -0.037440  0.906251
			-0.510171 -0.142625  0.848165
			-0.510409 -0.147426  0.847200
			-0.608423 -0.075263  0.790036
			-0.642341 -0.130465  0.755233
			-0.550293 -0.152848  0.820863
			-0.587770 -0.115047  0.800806
			-0.707505 -0.141662  0.692365
			-0.729534 -0.111630  0.674774
			-0.634400 -0.020801  0.772725
			-0.506539  0.034519  0.861526
			-0.613349  0.145483  0.776298
			-0.603779  0.217436  0.766924
			-0.295164  0.220809  0.929581
			-0.131940  0.289666  0.947990
			 0.006801  0.383261  0.923615
			 0.167103  0.401369  0.900544
			 0.367987  0.277930  0.887322
			-0.756853  0.609855  0.235054
			-0.602678  0.594637  0.532152
			-0.506363  0.559955  0.655779
			-0.458694  0.593475  0.661352
			-0.431916  0.473269  0.767767
			-0.392286  0.215456  0.894254
			-0.291938  0.203183  0.934606
			-0.292654  0.267037  0.918175
			-0.179756  0.258853  0.949043
			-0.254745  0.187756  0.948606
			-0.296179  0.096462  0.950249
			-0.390187  0.077072  0.917504
			-0.425559 -0.048253  0.903643
			-0.587880 -0.145749  0.795710
			-0.624015  0.008425  0.781367
			-0.609132  0.196304  0.768390
			-0.564021  0.223630  0.794902
			-0.469988  0.226422  0.853138
			-0.372083  0.286295  0.882943
			-0.354536  0.387395  0.851017
			-0.281183  0.412851  0.866308
			-0.232451  0.519228  0.822417
			-0.159860  0.515480  0.841858
			-0.089926  0.407452  0.908788
			 0.965755 -0.209322 -0.153302
			 0.880452 -0.261774 -0.395321
			 0.891766 -0.363189 -0.269904
			 0.780157 -0.509631  0.362811
			 0.857351 -0.468002 -0.214297
			 0.703618  0.710129 -0.025247
			-0.687295  0.700790 -0.191100
			 0.981478 -0.027956  0.189525
			 0.829324 -0.189037  0.525820
			 0.686323 -0.384100  0.617599
			 0.666235  0.415987  0.618939
			-0.295689  0.926912  0.231091
			 0.991485 -0.088593  0.095441
			 0.988173 -0.153223 -0.006126
			 0.885866 -0.180403  0.427429
			 0.195309  0.773608  0.602814
			 0.975753 -0.200311 -0.088212
			 0.908688 -0.232688 -0.346615
			 0.960154 -0.206437 -0.188384
			 0.919411  0.338601 -0.200084
			 0.963134 -0.205113  0.174073
			 0.979184 -0.179402  0.094944
			 0.964757 -0.221663  0.141804
			 0.969204  0.048001  0.241537
			 0.162676  0.986448  0.021383
			 0.881207 -0.150119  0.448261
			 0.830730 -0.088811  0.549545
			 0.751405 -0.168447  0.637978
			 0.777665  0.048994  0.626767
			 0.528349  0.845679  0.075327
			 0.884661 -0.112638  0.452424
			 0.870017 -0.044186  0.491038
			 0.985051 -0.132448  0.110145
			 0.864937  0.457996 -0.205239
			 0.900557 -0.151047  0.407655
			 0.991263 -0.121240 -0.051947
			 0.962375 -0.202985 -0.180642
			 0.983069  0.109679 -0.146788
			 0.187389  0.678797 -0.710014
			 0.780052 -0.444543  0.440342
			 0.933645 -0.195930  0.299862
			 0.902022 -0.292569  0.317426
			 0.948832  0.028849  0.314460
			 0.863657  0.459545  0.207160
			 0.522097  0.852639 -0.020512
			 0.755212 -0.343497  0.558270
			 0.651556  0.119051  0.749201
			 0.381225 -0.103319  0.918691
			 0.594394  0.081273  0.800057
			 0.588252  0.377600  0.715107
			 0.013901  0.945964  0.323973
			 0.696531  0.088890  0.712000
			 0.220644  0.934359 -0.279804
			 0.583607  0.027456  0.811572
			 0.784950 -0.024654  0.619068
			 0.041419  0.787154  0.615364
			 0.872226 -0.230612  0.431324
			 0.947694 -0.027335  0.318008
			 0.954377 -0.291568  0.064434
			 0.997676  0.042509  0.053257
			 0.736270  0.617979 -0.275697
			 0.716866 -0.234890  0.656452
			 0.718384 -0.182345  0.671324
			 0.746219 -0.207614  0.632498
			 0.760050  0.155182  0.631065
			 0.547013  0.722618  0.422611
			 0.048687  0.793755 -0.606285
			 0.378474  0.071640  0.922835
			 0.127995  0.107343  0.985949
			 0.013391  0.041318  0.999056
			 0.035353  0.377567  0.925307
			-0.255592  0.959579  0.117820
			 0.674393  0.126761  0.727410
			 0.556344  0.181946  0.810788
			 0.476073  0.446684  0.757515
			 0.032932  0.921073  0.387995
			 0.590792 -0.107848  0.799584
			 0.725697  0.038857  0.686916
			 0.908184 -0.037584  0.416880
			 0.826078  0.280282  0.488914
			 0.420541  0.904265  0.073826
			 0.463304  0.804242 -0.372217
			 0.329031  0.899758 -0.286661
			 0.394473  0.041174  0.917985
			 0.335021  0.016869  0.942060
			 0.455647  0.029203  0.889682
			 0.252068  0.534802  0.806504
			-0.058582  0.997245 -0.045498
			 0.011451  0.977631 -0.210016
			 0.334392  0.142487  0.931601
			-0.005882  0.191937  0.981390
			 0.018118  0.123185  0.992218
			 0.008024  0.657533  0.753383
			-0.332428  0.941517 -0.055116
			-0.159422  0.976897 -0.142324
			 0.485030  0.284457  0.826940
			 0.677040  0.332765  0.656418
			 0.243129 -0.036842  0.969294
			-0.015691  0.868849  0.494829
			 0.026770  0.986587  0.161024
			 0.707042  0.286034  0.646743
			 0.917004  0.100333  0.386052
			 0.880780 -0.160045  0.445658
			 0.639675  0.496436  0.586828
			 0.156878  0.987472  0.016997
			 0.148922  0.971791  0.182877
			 0.463797  0.108349  0.879291
			 0.449842  0.060039  0.891088
			 0.493153  0.051771  0.868401
			 0.499301  0.748925  0.435672
			 0.194434  0.968004 -0.158631
			 0.330910  0.255201  0.908500
			 0.230781  0.025799  0.972664
			 0.310995  0.033202  0.949832
			 0.356119  0.630048  0.690086
			 0.192086  0.975776 -0.104715
			 0.130049  0.983920  0.122424
			 0.320339  0.450773  0.833179
			 0.109108  0.104885  0.988481
			 0.072120  0.067907  0.995082
			 0.149990  0.485479  0.861286
			 0.244017  0.961773  0.124288
			 0.212761  0.972642 -0.093280
			 0.333939  0.568280  0.752026
			-0.019054  0.229839  0.973042
			-0.291480  0.177167  0.940027
			-0.109606  0.504132  0.856643
			-0.022614  0.938839  0.343614
			 0.306280  0.686040  0.659956
			-0.062511  0.441443  0.895109