<?xml version="1.0"?>
<VTKFile type="PolyData" version="0.1" byte_order="LittleEndian" compressor="vtkZLibDataCompressor">
	<PolyData>
		<Piece NumberOfPoints="3305" NumberOfVerts="0" NumberOfLines="0" NumberOfStrips="0" NumberOfPolys="3779">
		<PointData Normals="Normals">
		<DataArray type="Float32" Name="Normals" NumberOfComponents="3" format="ascii">
			 0.881952 -0.471339  0.000409
			 0.999973  0.007293  0.000000
			 0.994808  0.101765  0.000000
			 0.380438  0.912091 -0.152830
			 0.993230 -0.115587  0.011582
			 0.572724 -0.819676  0.010880
			 0.931028  0.364946  0.001058
			 0.842854  0.538121 -0.004783
			 0.868885  0.494810 -0.014203
			 0.910342  0.413772 -0.008373
			 0.997900  0.064773 -0.000238
			 0.966987 -0.254786 -0.004577
			 0.986548 -0.163440 -0.003309
			-0.757540 -0.637463 -0.140618
			 0.943186 -0.328917  0.047056
			 0.724603  0.315963  0.612469
			 0.779686 -0.445795  0.439724
			 0.380658  0.106961  0.918509
			 0.380658  0.106961  0.918509
			-0.504177 -0.862948 -0.033557
			-0.854127 -0.507131  0.115259
			-0.885327 -0.418740  0.202123
			-0.664804  0.746935 -0.011133
			-0.308785 -0.933164 -0.184003
			-0.923217  0.379415 -0.060944
			-0.826500  0.562908  0.005663
			 0.650896  0.759054  0.013126
			-0.672563  0.740034 -0.003012
			 0.415214  0.909723 -0.001409
			-0.494274  0.868210  0.043642
			 0.240763  0.970333  0.022091
			-0.296297  0.954043  0.044826
			 0.104374  0.994438 -0.014122
			-0.919510 -0.392977  0.008405
			-0.702270 -0.711910  0.001089
			-0.546315 -0.837567  0.004533
			-0.444798 -0.884491 -0.140819
			-0.452885 -0.891559  0.004190
			-0.319535 -0.946673  0.041334
			-0.467713 -0.883617 -0.021585
			-0.356929 -0.925577 -0.126131
			-0.125129 -0.989160 -0.076840
			-0.171105 -0.985132 -0.015420
			-0.227841 -0.973683 -0.005436
			-0.266847 -0.963584 -0.017272
			-0.279380 -0.959705 -0.030199
			-0.386323 -0.875389  0.290599
			-0.407401 -0.846876  0.341799
			-0.546583 -0.832741  0.088260
			-0.614588 -0.778960 -0.124513
			-0.521785 -0.852191 -0.038877
			-0.346167 -0.937609  0.032525
			-0.168150 -0.949081  0.266403
			-0.064559 -0.969562  0.236180
			-0.216195 -0.976234 -0.015088
			-0.259376 -0.965748  0.007470
			-0.189012 -0.974734  0.119030
			 0.252672 -0.957860 -0.136605
			 0.398023 -0.913899 -0.079792
			-0.186307 -0.970514 -0.152948
			 0.135666 -0.926690 -0.350486
			 0.534382 -0.796791 -0.282063
			 0.522722 -0.845875 -0.106100
			 0.734051 -0.648234  0.202391
			 0.816465 -0.532338  0.223610
			 0.620509 -0.782960  0.044064
			 0.306584 -0.949515  0.066542
			-0.039278 -0.988831  0.143775
			-0.384162 -0.889371 -0.247866
			-0.473964 -0.694851 -0.540870
			-0.457934 -0.886509  0.066321
			-0.192942 -0.980895 -0.024867
			 0.320655 -0.944523  0.071116
			-0.477248 -0.867778 -0.138547
			-0.494812 -0.868957 -0.008615
			 0.302443 -0.949360  0.085108
			 0.159173 -0.525179 -0.835973
			-0.383862 -0.923379  0.004551
			 0.149647 -0.005444  0.988725
			 0.187734  0.030780 -0.981738
			 0.292042 -0.956406  0.000000
			-0.925093 -0.373547 -0.068303
			 0.999588  0.028676  0.001141
			-0.986813 -0.124147 -0.103865
			 0.980303  0.197499  0.000066
			-0.994297  0.098710 -0.040358
			 0.981799  0.189922 -0.000541
			-0.935526  0.352530 -0.022674
			 0.957790  0.287470 -0.000140
			-0.931092  0.354570 -0.085718
			 0.908011  0.418947  0.000298
			-0.057966  0.998319  0.000000
			 0.408273 -0.520164 -0.750162
			 0.592080 -0.014280 -0.805753
			 0.178489 -0.848812 -0.497654
			 0.325192 -0.741583 -0.586774
			 0.502484  0.150410 -0.851403
			 0.120861 -0.925301 -0.359459
			 0.795795 -0.549735 -0.253973
			 0.831400  0.216036 -0.511959
			 0.270109 -0.931008 -0.245490
			 0.667249  0.121367 -0.734880
			 0.622554 -0.751826 -0.217218
			 0.908054  0.201305 -0.367307
			 0.884735  0.049536 -0.463454
			 0.965679  0.176237 -0.190799
			 0.730295  0.668010  0.142936
			 0.727574  0.510220 -0.458597
			 0.860112  0.170306 -0.480835
			 0.673001 -0.657783 -0.338218
			 0.314482 -0.917661 -0.242896
			 0.735400 -0.656554 -0.167701
			 0.925885  0.134668 -0.352990
			 0.782952 -0.542350 -0.304701
			 0.430530  0.401354  0.808430
			 0.956332 -0.273575 -0.102885
			 0.397302 -0.074299  0.914675
			 0.856646 -0.462466 -0.228656
			 0.330373 -0.363194  0.871174
			 0.843639 -0.308665 -0.439316
			 0.810366 -0.229463 -0.539123
			 0.508027 -0.790298  0.342547
			 0.354459 -0.593927  0.722225
			 0.885737 -0.190357 -0.423361
			 0.644733 -0.718462  0.261020
			 0.974497 -0.128768 -0.183780
			 0.552569 -0.794969  0.250384
			 0.731320 -0.150931 -0.665125
			 0.604799  0.003924 -0.796368
			 0.690369  0.010011 -0.723389
			 0.522138  0.199577 -0.829181
			 0.661821  0.299781 -0.687113
			 0.870882  0.362952 -0.331407
			 0.804244  0.524856 -0.278781
			 0.829448  0.474998 -0.293926
			 0.989765  0.132820 -0.052190
			 0.982654 -0.179280 -0.047431
			 0.985040 -0.171724 -0.014406
			 0.896472 -0.296373 -0.329396
			 0.935691 -0.306781 -0.174263
			 0.938581 -0.037053 -0.343065
			 0.679844 -0.187888 -0.708879
			 0.834892  0.344747 -0.429075
			 0.780889  0.221495 -0.584083
			 0.690494 -0.602989 -0.399528
			 0.720565 -0.589758 -0.364653
			 0.917343 -0.270286 -0.292280
			 0.660279  0.411288 -0.628390
			 0.676908  0.128628 -0.724742
			 0.807017  0.000049 -0.590529
			 0.883784 -0.318740 -0.342537
			 0.917727 -0.290199 -0.271221
			 0.892276 -0.416373 -0.174574
			 0.974897 -0.159512  0.155346
			 0.868390 -0.485854 -0.099218
			 0.629381 -0.695918 -0.345800
			 0.719792 -0.210936 -0.661367
			 0.772111 -0.014567 -0.635321
			 0.903013 -0.075454 -0.422936
			 0.610035  0.266068 -0.746367
			 0.924492  0.177267 -0.337477
			 0.601863  0.276063 -0.749366
			 0.642825  0.167633 -0.747446
			 0.567847 -0.120579 -0.814254
			 0.346807 -0.603220 -0.718228
			 0.706590 -0.573488 -0.414538
			 0.328534  0.308646 -0.892638
			 0.149128  0.542114 -0.826966
			 0.441024  0.631532 -0.637703
			 0.540550  0.717159 -0.439873
			 0.261466 -0.703607 -0.660736
			 0.241474 -0.840102 -0.485714
			 0.818505 -0.522003 -0.239922
			 0.927187 -0.245778 -0.282696
			 0.235748 -0.957624 -0.165468
			 0.296302 -0.947372  0.121207
			 0.895030 -0.372974 -0.244565
			 0.916113 -0.146353 -0.373253
			 0.020705 -0.824670 -0.565235
			-0.027138 -0.975050 -0.220319
			 0.052192 -0.589178 -0.806316
			 0.113565 -0.377650 -0.918958
			 0.275583 -0.164240 -0.947143
			 0.188708  0.288117 -0.938817
			-0.000782  0.683685 -0.729777
			 0.064669  0.802626 -0.592967
			 0.956074 -0.072937 -0.283908
			 0.364877  0.924638 -0.109131
			 0.768506 -0.628456 -0.120173
			 0.973147  0.153041 -0.171940
			 0.879055 -0.368413 -0.302547
			 0.918220 -0.322463 -0.229978
			 0.830824 -0.556332  0.015054
			 0.722927 -0.568154 -0.393163
			 0.754263 -0.190650 -0.628283
			 0.800543 -0.426717 -0.420766
			 0.523650 -0.352045 -0.775793
			 0.835498 -0.538877 -0.107497
			 0.887904 -0.452726 -0.081637
			 0.846341 -0.500930 -0.181041
			 0.631193 -0.770759 -0.086756
			 0.737065 -0.583152 -0.341569
			 0.903899  0.160422 -0.396524
			 0.454254  0.889840  0.042886
			 0.386938 -0.798609 -0.460981
			 0.260384 -0.951308 -0.164966
			 0.779088 -0.582504 -0.231757
			 0.901465 -0.328206 -0.282209
			 0.844647 -0.179332 -0.504392
			 0.742150  0.266834 -0.614827
			 0.621788  0.781599 -0.049829
			 0.854508  0.279580 -0.437780
			 0.889557  0.452484 -0.062821
			 0.752985  0.155333 -0.639441
			 0.675519 -0.197481 -0.710405
			 0.590194 -0.605174 -0.534262
			 0.175079 -0.960586 -0.215922
			 0.455413  0.136571 -0.879743
			 0.661500  0.218910 -0.717284
			 0.391244  0.184692 -0.901564
			 0.444610 -0.633407 -0.633338
			 0.511431 -0.243652 -0.824058
			-0.107864 -0.984042 -0.141518
			 0.434476  0.578193 -0.690596
			 0.516299 -0.039541 -0.855495
			 0.841863 -0.209338 -0.497438
			 0.960510 -0.242290  0.136803
			 0.127797  0.914683 -0.383436
			 0.172226  0.978042 -0.117357
			 0.378074  0.912357  0.157052
			 0.429548  0.834410  0.345325
			 0.678448  0.542870  0.494975
			 0.779872 -0.155949  0.606201
			 0.197273  0.150646 -0.968705
			 0.610137 -0.332477 -0.719161
			 0.488814  0.269462 -0.829730
			 0.762540 -0.175515 -0.622677
			 0.810117  0.071144 -0.581935
			 0.880640 -0.183878 -0.436650
			-0.058483 -0.985450  0.159588
			 0.382402 -0.873170  0.302230
			 0.469157 -0.815214  0.339585
			 0.672066 -0.690976  0.266233
			 0.003635 -0.829237  0.558885
			 0.237537 -0.560133  0.793617
			 0.515253 -0.432326  0.740006
			-0.065000 -0.229827 -0.971058
			-0.005689 -0.838313 -0.545159
			-0.294745 -0.339482 -0.893240
			-0.313127 -0.089699 -0.945466
			-0.572484 -0.075270 -0.816454
			-0.366903  0.390904 -0.844142
			-0.411677 -0.019435 -0.911122
			-0.449164 -0.112300 -0.886364
			-0.400984 -0.505500 -0.763991
			-0.361764 -0.145569 -0.920835
			-0.407440 -0.049002 -0.911916
			-0.675415 -0.695099 -0.246275
			-0.698745 -0.266215 -0.663992
			-0.588704 -0.000924 -0.808348
			-0.685085  0.100804 -0.721455
			-0.826536 -0.003240 -0.562874
			-0.953429 -0.090674 -0.287666
			-0.960965 -0.164400 -0.222529
			-0.939701 -0.168948  0.297353
			-0.656676 -0.728997  0.193238
			-0.970923 -0.088591  0.222398
			-0.915168 -0.328045 -0.234208
			-0.946611  0.042159  0.319611
			-0.927434 -0.215284 -0.305808
			-0.994926  0.028343  0.096534
			-0.614600  0.454906  0.644458
			-0.723320 -0.234051  0.649638
			-0.682153 -0.580564  0.444537
			-0.894570  0.430923 -0.118534
			-0.591525 -0.721201 -0.360510
			-0.906057 -0.131843 -0.402091
			-0.775238  0.196600 -0.600295
			-0.163470 -0.557073 -0.814215
			-0.512520 -0.238985 -0.824749
			-0.937975  0.124810 -0.323457
			-0.349695 -0.349679 -0.869159
			-0.711831  0.020864 -0.702040
			-0.837007  0.215404 -0.503011
			 0.180821 -0.654154 -0.734429
			-0.525202 -0.850605 -0.025196
			-0.647027 -0.762421 -0.008429
			-0.109035 -0.574040 -0.811535
			 0.255399 -0.049394 -0.965573
			 0.347172  0.816286 -0.461681
			-0.172156 -0.519652 -0.836854
			 0.103620  0.913205 -0.394106
			 0.132100  0.900261 -0.414825
			 0.026859 -0.613055 -0.789583
			 0.018615 -0.698008 -0.715848
			-0.526148 -0.850340  0.009497
			-0.090490 -0.988097 -0.124404
			 0.213024 -0.952776 -0.216423
			-0.608284 -0.088720  0.788746
			-0.507489 -0.065853  0.859138
			-0.012861 -0.040415  0.999100
			 0.374222 -0.692266  0.617030
			-0.346927  0.613039  0.709807
			-0.184363  0.813334  0.551814
			-0.417492  0.249715 -0.873695
			-0.600381  0.196428 -0.775215
			-0.602125  0.131862 -0.787437
			-0.022748  0.039886 -0.998945
			 0.248339 -0.525119 -0.813989
			 0.358187 -0.403813 -0.841806
			 0.647930 -0.410136 -0.641853
			 0.601022 -0.403617 -0.689830
			 0.624129 -0.253263 -0.739135
			 0.707431 -0.264983 -0.655229
			 0.491521 -0.232421 -0.839278
			 0.597809 -0.226326 -0.769026
			 0.361674 -0.314230 -0.877754
			 0.407349 -0.354416 -0.841698
			 0.343842 -0.328189 -0.879809
			 0.420467 -0.274781 -0.864698
			-0.046202  0.924743  0.377777
			-0.107042  0.988877 -0.103267
			-0.103622  0.448384 -0.887814
			 0.298381  0.940927 -0.160080
			 0.273490  0.935069  0.225500
			 0.265024  0.634860  0.725752
			 0.031850  0.167952 -0.985281
			 0.376221  0.562084 -0.736559
			 0.570472  0.810625 -0.132092
			 0.604559  0.221897 -0.765029
			 0.365421 -0.038891 -0.930029
			 0.482449 -0.056850 -0.874077
			 0.420443 -0.228469 -0.878083
			 0.663651  0.310691 -0.680469
			 0.252745 -0.512934 -0.820377
			 0.332448 -0.157497 -0.929878
			 0.342490 -0.337824 -0.876684
			 0.289858 -0.769368 -0.569258
			 0.373159 -0.698868 -0.610193
			 0.412121 -0.857262 -0.308640
			 0.583167 -0.800612 -0.137612
			 0.479029 -0.726166 -0.493167
			-0.034542 -0.338217 -0.940434
			 0.203657 -0.454500 -0.867152
			-0.449662 -0.273289 -0.850363
			-0.354162 -0.342802 -0.870090
			-0.337023 -0.385665 -0.858882
			-0.468633 -0.194002 -0.861827
			-0.280392 -0.250042 -0.926747
			-0.302468 -0.326966 -0.895325
			-0.304559 -0.283294 -0.909389
			-0.343033 -0.325907 -0.880973
			-0.303357 -0.252244 -0.918884
			-0.216603 -0.210191 -0.953364
			 0.234241 -0.187342 -0.953957
			-0.164785 -0.252667 -0.953418
			 0.210643 -0.168621 -0.962910
			-0.144110 -0.273835 -0.950919
			-0.159667 -0.352988 -0.921903
			 0.178844 -0.255306 -0.950176
			-0.164976 -0.460317 -0.872291
			 0.166875 -0.456832 -0.873761
			 0.145086 -0.651849 -0.744340
			-0.055563 -0.603750 -0.795235
			 0.193378 -0.659598 -0.726316
			-0.497632 -0.327764 -0.803077
			-0.553785 -0.214678 -0.804510
			-0.574494 -0.354696 -0.737664
			-0.551853 -0.440577 -0.708061
			-0.489955 -0.498726 -0.714994
			-0.500527 -0.559754 -0.660415
			-0.600094 -0.284360 -0.747681
			-0.459022 -0.338137 -0.821561
			-0.809412 -0.103758 -0.578002
			-0.659850 -0.199611 -0.724399
			-0.753310 -0.157251 -0.638589
			-0.734866 -0.256173 -0.627970
			-0.656783 -0.318752 -0.683398
			-0.713121 -0.455210 -0.533143
			-0.752268 -0.398287 -0.524843
			-0.628469 -0.324251 -0.707028
			-0.719519 -0.541113 -0.435303
			-0.847583 -0.343665 -0.404349
			-0.712127 -0.593025 -0.375762
			-0.891145 -0.330428 -0.310930
			-0.692777 -0.649644 -0.313086
			-0.896987 -0.395553 -0.197363
			-0.609695 -0.636786 -0.471990
			-0.891448 -0.410472 -0.191917
			-0.910163 -0.414250 -0.000135
			-0.253415  0.928646 -0.270918
			 0.074422  0.985218 -0.154294
			 0.758892 -0.341916 -0.554235
			 0.494263 -0.135314 -0.858716
			-0.408516 -0.175137 -0.895791
			-0.646478  0.034671 -0.762145
			-0.091709  0.283885 -0.954462
			 0.632750  0.350301 -0.690591
			 0.329067 -0.463579 -0.822684
			 0.266930 -0.614246 -0.742597
			-0.418599  0.102819 -0.902332
			 0.536478 -0.577018 -0.615826
			-0.077201 -0.786263 -0.613050
			-0.358433 -0.795014 -0.489366
			 0.536712 -0.645584 -0.543287
			 0.426425 -0.671343 -0.606185
			 0.299718 -0.555599 -0.775551
			 0.160683 -0.440833 -0.883090
			 0.222734 -0.838608 -0.497118
			 0.402529 -0.701851 -0.587687
			 0.209409 -0.220536 -0.952634
			-0.297393  0.951453  0.079335
			 0.340858 -0.659634 -0.669850
			 0.386017 -0.818103 -0.426261
			 0.392940 -0.912069 -0.117170
			 0.802610 -0.541783 -0.249576
			 0.936243  0.348248  0.046603
			 0.540064 -0.640211 -0.546316
			 0.123201 -0.676213 -0.726332
			 0.488511 -0.698625 -0.522762
			 0.565955 -0.626070 -0.536406
			 0.875491 -0.182736 -0.447350
			 0.857443 -0.450391 -0.248877
			 0.786126 -0.599670 -0.149673
			-0.378179 -0.786384 -0.488448
			-0.010741 -0.966106 -0.257921
			 0.351580 -0.670810 -0.652997
			 0.933434 -0.358309  0.017792
			 0.857744  0.115644 -0.500901
			 0.502116 -0.182522 -0.845319
			 0.746501 -0.647396  0.153671
			 0.100490 -0.994923  0.005523
			 0.779836 -0.334248 -0.529278
			 0.925834 -0.326910 -0.189635
			-0.812992  0.566666 -0.133919
			-0.556532  0.271618 -0.785172
			 0.157793  0.144566 -0.976833
			 0.700787 -0.120545 -0.703112
			 0.877930 -0.208349 -0.431079
			 0.755638 -0.117342 -0.644392
			-0.195392  0.358108 -0.913006
			-0.501393  0.322722 -0.802780
			-0.227464  0.072415 -0.971090
			 0.223587  0.161153 -0.961269
			 0.726924  0.088423 -0.681001
			 0.649743  0.039313 -0.759137
			-0.446931  0.139561 -0.883615
			-0.335460  0.078476 -0.938780
			-0.046824  0.008630 -0.998866
			-0.130035 -0.128457 -0.983153
			 0.475068 -0.111522 -0.872853
			 0.843372 -0.115806 -0.524702
			 0.527273 -0.020422 -0.849450
			-0.086632 -0.036586 -0.995568
			-0.087792 -0.000118 -0.996139
			 0.517032 -0.069774 -0.853117
			 0.870196 -0.219119 -0.441299
			 0.142948 -0.045954 -0.988663
			-0.418160  0.213909 -0.882828
			 0.112185  0.004697 -0.993676
			 0.667748 -0.070104 -0.741078
			 0.927371 -0.065929 -0.368289
			 0.976692 -0.004729 -0.214594
			 0.366099  0.230185 -0.901657
			-0.154851  0.104560 -0.982389
			 0.308527  0.143197 -0.940375
			 0.771444  0.220893 -0.596724
			 0.976465  0.215330  0.012195
			 0.968316  0.104865  0.226646
			 0.625345  0.292260 -0.723552
			-0.053032  0.262280 -0.963534
			 0.543787  0.274484 -0.793067
			 0.916467  0.258229 -0.305624
			 0.927090  0.247026  0.281925
			 0.882044  0.390007 -0.264371
			 0.476453  0.195174 -0.857263
			 0.833050  0.315383 -0.454489
			 0.934209  0.355419  0.030530
			 0.818130  0.304501  0.487794
			-0.731326  0.187421 -0.655771
			-0.307265 -0.036142 -0.950937
			 0.262521 -0.218401 -0.939885
			 0.683345 -0.341569 -0.645267
			 0.835583 -0.353521 -0.420505
			 0.205251 -0.260812 -0.943318
			-0.582410  0.212434 -0.784647
			-0.458781 -0.040893 -0.887608
			-0.124984 -0.360002 -0.924542
			 0.306081 -0.502780 -0.808410
			 0.561370 -0.433097 -0.705188
			-0.253937 -0.524845 -0.812437
			-0.849085 -0.109148 -0.516857
			-0.487850 -0.217201 -0.845474
			 0.029731 -0.411889 -0.910749
			 0.135383 -0.475229 -0.869384
			 0.500465 -0.543948 -0.673540
			-0.131563 -0.851389 -0.507768
			-0.551676 -0.310329 -0.774177
			-0.028719 -0.586182 -0.809670
			 0.315694 -0.610489 -0.726389
			-0.040999 -0.976559 -0.211311
			 0.130365 -0.693516 -0.708548
			-0.362848 -0.452946 -0.814359
			 0.176697 -0.580527 -0.794837
			 0.568857 -0.581548 -0.581553
			 0.703991 -0.565847 -0.429202
			 0.335496 -0.393759 -0.855801
			-0.225007 -0.917297 -0.328539
			-0.118435 -0.528888 -0.840387
			-0.059435 -0.523605 -0.849886
			 0.299461 -0.765108 -0.570029
			 0.738873 -0.569701 -0.359871
			 0.782408 -0.593891  0.187433
			 0.834465 -0.540374  0.107998
			-0.078600 -0.416831 -0.905579
			-0.061036 -0.326446 -0.943243
			 0.512234 -0.522812 -0.681384
			 0.747336 -0.664426 -0.005137
			 0.848248 -0.410046  0.335168
			 0.968814 -0.116467  0.218714
			 0.817287  0.527698 -0.231468
			 0.504166 -0.140032 -0.852178
			 0.645149 -0.570843 -0.507858
			 0.365306 -0.900513 -0.235857
			 0.730295 -0.682193 -0.035800
			-0.852799 -0.495251  0.165714
			-0.641026 -0.718357 -0.270276
			-0.755230 -0.544378 -0.365076
			-0.541687 -0.729382 -0.417825
			-0.055460 -0.836736 -0.544790
			 0.430066 -0.787758 -0.440999
			-0.227101 -0.888305  0.399173
			-0.878676 -0.358173  0.315660
			-0.689290 -0.513056 -0.511520
			-0.482833 -0.666048 -0.568553
			-0.295859 -0.927364 -0.229050
			 0.020168 -0.964201 -0.264403
			 0.028968 -0.887099 -0.460670
			-0.770777 -0.478533 -0.420606
			-0.914349 -0.356325 -0.192350
			-0.531172 -0.761027 -0.372416
			-0.223862 -0.942000 -0.250045
			 0.050663 -0.992816 -0.108392
			-0.235119 -0.904594  0.355569
			-0.586862 -0.808641 -0.041144
			 0.016213 -0.981567  0.190430
			 0.436432 -0.883627  0.169503
			-0.412814 -0.872059  0.262865
			-0.557634 -0.828883  0.044681
			-0.030560 -0.982521  0.183626
			-0.267513 -0.947901 -0.172977
			-0.496789 -0.853222 -0.158782
			-0.267740 -0.890387  0.368138
			 0.133456 -0.832872  0.537135
			 0.220693 -0.661286  0.716934
			-0.156255 -0.987197  0.032028
			-0.456170 -0.813118 -0.361591
			-0.291925 -0.956422 -0.006015
			-0.235807 -0.963744  0.124870
			-0.253862 -0.843163  0.473952
			-0.073198 -0.960384  0.268894
			-0.238415 -0.948866 -0.206912
			-0.597366 -0.781112  0.181706
			-0.492327 -0.865438  0.092899
			-0.826193 -0.220673  0.518371
			-0.612882 -0.668023  0.422044
			-0.397485 -0.855519 -0.331802
			-0.551116 -0.826264 -0.116442
			-0.736484 -0.675848  0.028662
			-0.300431 -0.953661 -0.016496
			-0.330009 -0.924368  0.191413
			-0.466050 -0.854515 -0.229348
			-0.169153 -0.812181 -0.558345
			-0.122081 -0.864381 -0.487793
			-0.361511 -0.851799 -0.379141
			-0.510296 -0.813128 -0.280037
			 0.039787 -0.966349 -0.254138
			-0.590211 -0.758668 -0.275816
			-0.934398 -0.327611 -0.139898
			-0.573379 -0.796164 -0.193285
			-0.261380 -0.937247 -0.230756
			-0.344202 -0.934634 -0.089357
			 0.100972 -0.961416  0.255898
			 0.078541 -0.985643  0.149466
			-0.310926 -0.943009 -0.118567
			-0.109374 -0.988282  0.106472
			 0.151323 -0.966889  0.205493
			 0.171956 -0.975113  0.139949
			-0.530798 -0.847496 -0.002130
			-0.251937 -0.958496  0.133465
			-0.115816 -0.963271  0.242271
			-0.486720 -0.844618  0.222989
			-0.601024 -0.681678  0.417235
			-0.383521 -0.659563  0.646443
			-0.229197 -0.585709  0.777440
			-0.101742 -0.465105  0.879390
			-0.399619 -0.662650  0.633404
			-0.690006 -0.675452  0.260106
			-0.699546 -0.623340  0.349403
			-0.606797 -0.651745  0.455001
			-0.631869 -0.747016  0.206660
			-0.758698 -0.620634  0.197968
			-0.838559 -0.542640 -0.048589
			-0.816758 -0.574165  0.056924
			-0.778247 -0.575419  0.251445
			-0.758651 -0.592972  0.269874
			-0.687553 -0.700710  0.190463
			-0.244258 -0.956974  0.156646
			 0.178263 -0.927476 -0.328649
			 0.185745 -0.969563  0.159521
			-0.732661 -0.663242  0.152704
			-0.656775 -0.721024 -0.220843
			-0.570915 -0.791094 -0.219606
			-0.380484 -0.858094 -0.344828
			-0.206526 -0.974818 -0.084129
			 0.217069 -0.974337  0.059569
			-0.305860 -0.952065  0.004678
			-0.900315 -0.385690  0.201686
			-0.401158 -0.905340  0.139394
			 0.157428 -0.987231 -0.024316
			 0.174991 -0.964942  0.195616
			 0.255180 -0.844420  0.470996
			 0.114182 -0.818614  0.562880
			-0.558623 -0.825666  0.078847
			 0.165571 -0.952389  0.256012
			 0.455850 -0.808318  0.372590
			 0.057826 -0.950503  0.305289
			-0.529603 -0.844300 -0.081720
			-0.346825 -0.900864  0.261068
			 0.138373 -0.884293  0.445958
			 0.376551 -0.899291  0.222452
			 0.461484 -0.865263  0.195838
			-0.341846 -0.891790  0.296398
			-0.812514 -0.451367  0.368904
			-0.473747 -0.503324  0.722654
			-0.136408 -0.421946  0.896300
			 0.025689 -0.350438  0.936233
			-0.222888 -0.491238  0.842025
			-0.675541 -0.460761  0.575625
			-0.814790 -0.471489  0.337365
			-0.797889 -0.427017  0.425475
			-0.761792 -0.292259  0.578151
			-0.883668 -0.445081  0.145032
			-0.868803 -0.494806 -0.018675
			-0.800052 -0.597181 -0.057369
			-0.804853 -0.553548  0.214001
			-0.733456 -0.420026  0.534435
			-0.351320 -0.341135  0.871895
			-0.099950 -0.391010  0.914943
			 0.341207 -0.809645  0.477548
			 0.623047 -0.780032  0.057986
			-0.047450 -0.572649  0.818426
			-0.671402 -0.275944  0.687804
			-0.180759 -0.480469  0.858182
			 0.374116 -0.564481  0.735798
			-0.282317 -0.612901  0.738004
			-0.843014 -0.224673  0.488721
			-0.186236 -0.418093  0.889109
			 0.446271 -0.424697  0.787703
			 0.478025 -0.343327  0.808467
			-0.415646 -0.189481  0.889571
			-0.876266 -0.187507  0.443845
			-0.644962 -0.274267  0.713304
			-0.090521 -0.322598  0.942198
			 0.383786 -0.252070  0.888352
			 0.052771 -0.100853  0.993501
			-0.665602 -0.104837  0.738907
			-0.431031 -0.284791  0.856216
			 0.180025 -0.281193  0.942614
			 0.304987 -0.423605  0.852960
			 0.092366 -0.668322  0.738116
			-0.455300 -0.147994  0.877952
			-0.192584 -0.593863  0.781177
			-0.245825 -0.261036  0.933504
			-0.669113  0.708853  0.223193
			-0.211262  0.976098 -0.050998
			-0.321875  0.726588  0.607015
			-0.349752  0.708635  0.612788
			-0.603182  0.754467  0.258749
			-0.962070 -0.114342 -0.247683
			-0.313859  0.188870  0.930495
			-0.633285  0.541547  0.552881
			-0.500614 -0.322815 -0.803229
			 0.090484 -0.399493  0.912260
			-0.051682 -0.890056  0.452912
			-0.582886 -0.358372  0.729255
			-0.621331 -0.206438  0.755865
			-0.100603 -0.556261  0.824895
			 0.014317 -0.780078  0.625519
			-0.510692 -0.370746  0.775720
			 0.498859  0.629783  0.595410
			 0.409515 -0.672077  0.616935
			-0.650417 -0.407837  0.640802
			-0.646100  0.080554  0.758990
			 0.629170  0.276296  0.726503
			 0.259184 -0.388319  0.884326
			-0.449431 -0.203380  0.869855
			 0.069556  0.941013 -0.331145
			 0.557672  0.764194  0.324052
			 0.017277  0.085822  0.996161
			-0.163038  0.128423  0.978226
			-0.620951 -0.127212  0.773458
			-0.631661 -0.671310  0.387747
			 0.340784  0.891607 -0.298166
			-0.914639 -0.356158  0.191277
			-0.713302  0.619488 -0.327773
			-0.775471  0.625347 -0.087091
			 0.276462  0.960652  0.026778
			-0.121179 -0.956865  0.264055
			-0.297882 -0.925226  0.234993
			-0.461544 -0.739195  0.490477
			-0.394668  0.872499 -0.288068
			-0.052622 -0.962088 -0.267613
			-0.362909 -0.731766 -0.576901
			-0.320867 -0.808899 -0.492674
			-0.369586 -0.721077 -0.586050
			-0.327752 -0.840122 -0.432174
			-0.185913 -0.982440 -0.015766
			-0.184338 -0.982861 -0.002031
			-0.265739 -0.963534  0.031368
			-0.263337 -0.937256  0.228484
			 0.302541  0.393136 -0.868282
			 0.117283  0.133013 -0.984151
			-0.283249 -0.017767 -0.958882
			-0.285033 -0.076936 -0.955425
			-0.747811 -0.523953  0.407741
			-0.197073 -0.684805 -0.701572
			 0.431002 -0.650618 -0.625247
			 0.998907  0.046273  0.006629
			 0.597345 -0.281819  0.750838
			-0.016404 -0.360200  0.932731
			-0.913435 -0.404729 -0.042790
			-0.182371 -0.374995 -0.908911
			 0.551497 -0.152229 -0.820169
			 0.998782  0.017912 -0.045969
			 0.418512  0.133183  0.898393
			-0.741828 -0.112225  0.661133
			-0.926018  0.369342  0.077958
			-0.933491  0.358173 -0.017535
			-0.937792  0.340811 -0.066292
			-0.936387  0.308450 -0.167445
			-0.879710  0.399472 -0.257940
			-0.803792  0.465305 -0.370688
			-0.701059  0.511278 -0.497103
			-0.559739  0.607927 -0.563131
			-0.477160  0.645100 -0.596795
			-0.400049  0.658790 -0.637147
			-0.272539  0.698997 -0.661154
			-0.153280  0.701600 -0.695890
			-0.077600  0.675636 -0.733140
			-0.020980  0.652108 -0.757835
			 0.050424  0.622383 -0.781087
			 0.114008  0.601283 -0.790861
			 0.173760  0.579072 -0.796545
			 0.154845  0.557826 -0.815385
			 0.231095  0.571574 -0.787336
			 0.321437  0.579850 -0.748634
			 0.359583  0.559226 -0.746972
			 0.421869  0.609142 -0.671545
			 0.477718  0.632544 -0.609650
			 0.529904  0.684768 -0.500294
			 0.621606  0.681122 -0.386882
			 0.703238  0.676790 -0.217740
			 0.773087  0.613957 -0.159352
			 0.804589  0.583036 -0.112714
			 0.813684  0.578335 -0.058715
			 0.823705  0.567018 -0.000071
			-0.810861  0.580984 -0.070445
			-0.723159  0.651775 -0.228540
			-0.577260  0.739303 -0.346701
			-0.452543  0.783619 -0.425613
			-0.361524  0.794240 -0.488347
			-0.257883  0.820078 -0.510851
			-0.145116  0.817614 -0.557180
			-0.073416  0.802198 -0.592527
			-0.026644  0.792108 -0.609800
			 0.039708  0.786380 -0.616465
			 0.095554  0.779369 -0.619236
			 0.129535  0.771789 -0.622545
			 0.201135  0.757278 -0.621349
			 0.313939  0.758773 -0.570707
			 0.345650  0.786322 -0.512078
			 0.386700  0.806704 -0.446870
			 0.471400  0.809754 -0.349401
			 0.533896  0.797237 -0.281723
			 0.620547  0.767608 -0.160308
			-0.642556  0.763401 -0.065884
			-0.562081  0.805587 -0.187334
			-0.487319  0.836017 -0.252184
			-0.407934  0.860156 -0.306141
			-0.326010  0.877675 -0.351288
			-0.229658  0.896469 -0.378947
			-0.113403  0.906782 -0.406062
			-0.061064  0.902517 -0.426304
			-0.019775  0.901177 -0.433000
			 0.027898  0.900391 -0.434187
			 0.080752  0.887753 -0.453181
			 0.159380  0.897260 -0.411731
			 0.235366  0.896602 -0.375111
			 0.276929  0.898539 -0.340498
			 0.356117  0.898799 -0.255618
			 0.385130  0.902075 -0.194773
			 0.402811  0.908348 -0.112462
			-0.475812  0.878206 -0.048543
			-0.399256  0.904360 -0.150753
			-0.290030  0.935359 -0.202449
			-0.171313  0.955023 -0.242040
			-0.081189  0.961087 -0.264046
			-0.065196  0.958914 -0.276105
			-0.032043  0.958704 -0.282596
			 0.016523  0.957946 -0.286473
			 0.064402  0.955406 -0.288189
			 0.130804  0.963654 -0.232941
			 0.142557  0.964467 -0.222442
			 0.158252  0.969886 -0.185141
			 0.223910  0.968672 -0.107421
			-0.267748  0.962167 -0.050463
			-0.150150  0.979042 -0.137595
			-0.084250  0.977944 -0.191122
			-0.055698  0.974755 -0.216219
			-0.019215  0.977645 -0.209385
			 0.032662  0.987061 -0.156981
			 0.073944  0.991206 -0.109740
			-0.068892 -0.709406  0.701426
			-0.586395 -0.380315  0.715193
			-0.471298 -0.366827  0.802070
			-0.002490 -0.548235  0.836320
			 0.023427 -0.862747  0.505093
			 0.601527 -0.795020  0.078161
			 0.025287 -0.988741  0.147487
			-0.247886 -0.811815  0.528686
			-0.408879 -0.582734  0.702310
			 0.050389  0.929422  0.365561
			 0.243391  0.916846  0.316471
			-0.089382  0.790749  0.605580
			-0.238782  0.684540  0.688759
			-0.565719 -0.269588  0.779285
			-0.683489 -0.517506  0.514811
			-0.711174 -0.630447  0.311076
			-0.808531 -0.566042  0.160851
			-0.767211 -0.628432  0.128304
			-0.665299 -0.595734  0.449976
			-0.116118 -0.533278  0.837933
			-0.355017 -0.420572  0.834915
			-0.490558 -0.297771  0.818954
			-0.461456 -0.291435  0.837928
			-0.254281 -0.373384  0.892146
			-0.009121 -0.471667  0.881729
			 0.085615 -0.596567  0.797984
			-0.036778 -0.631776  0.774278
			-0.242587 -0.549432  0.799547
			-0.343918 -0.476823  0.808925
			-0.395412 -0.451572  0.799833
			-0.440477 -0.471453  0.764010
			-0.384416 -0.502199  0.774610
			-0.396813 -0.528705  0.750340
			-0.586014 -0.575059  0.570871
			-0.695819 -0.637347  0.331096
			-0.713345 -0.675092  0.188122
			-0.714313 -0.687241  0.132122
			-0.695142 -0.666169  0.270178
			-0.652154 -0.678317  0.338499
			-0.371775 -0.850303  0.372515
			-0.526039 -0.753907  0.393582
			-0.541018 -0.762012  0.355860
			-0.525173 -0.708071  0.472048
			-0.309107 -0.811218  0.496364
			-0.215084 -0.861846  0.459304
			-0.263721 -0.855310  0.445978
			-0.341724 -0.838785  0.423869
			-0.442384 -0.768594  0.462126